version 2
run MvSc5-0-20210327-07:35:02-3838
attr configname MvSc5
attr datetime 20210327-07:35:02
attr experiment MvSc5
attr inifile mvsc3.ini
attr iterationvars ""
attr iterationvarsf ""
attr measurement ""
attr network mvsc_network5
attr processid 3838
attr repetition 0
attr replication #0
attr resultdir results
attr runnumber 0
attr seedset 0

vector 0 mvsc_network5.l1 Measurement ETV
vector 1 mvsc_network5.l2 Measurement ETV
vector 2 mvsc_network5.l3 Measurement ETV
vector 3 mvsc_network5.l4 Measurement ETV
vector 4 mvsc_network5.l5 Measurement ETV
0	1	0	0
0	1	0	0
0	1	0	0
0	1397	120	55
0	1397	120	9
0	1397	120	200
0	2698	240	110
0	2698	240	22
0	2698	240	376
0	4069	360	157
0	4069	360	33
0	4069	360	576
0	5447	480	212
0	5447	480	42
0	5447	480	773
0	6863	600	263
0	6863	600	53
0	6863	600	978
0	8273	720	312
0	8273	720	64
0	8273	720	1184
0	9625	840	363
0	9625	840	74
0	9625	840	1378
0	11013	960	416
0	11013	960	85
0	11013	960	1576
0	12357	1080	473
0	12357	1080	97
0	12357	1080	1760
0	13677	1200	525
0	13677	1200	110
0	13677	1200	1943
0	15027	1320	575
0	15027	1320	120
0	15027	1320	2137
0	16423	1440	627
0	16423	1440	128
0	16423	1440	2341
0	17774	1560	677
0	17774	1560	140
0	17774	1560	2533
0	19136	1680	730
0	19136	1680	154
0	19136	1680	2722
0	20464	1800	771
0	20464	1800	166
0	20464	1800	2919
0	21844	1920	827
0	21844	1920	176
0	21844	1920	3113
0	23210	2040	878
0	23210	2040	190
0	23210	2040	3305
0	24568	2160	932
0	24568	2160	198
0	24568	2160	3499
0	25895	2280	977
0	25895	2280	209
0	25895	2280	3693
0	27306	2400	1035
0	27306	2400	221
0	27306	2400	3889
0	28762	2520	1091
0	28762	2520	235
0	28762	2520	4094
0	30116	2640	1145
0	30116	2640	246
0	30116	2640	4283
0	31460	2760	1193
0	31460	2760	258
0	31460	2760	4476
0	32775	2880	1249
0	32775	2880	266
0	32775	2880	4660
0	34165	3000	1303
0	34165	3000	276
0	34165	3000	4858
0	35584	3120	1359
0	35584	3120	284
0	35584	3120	5063
0	36931	3240	1407
0	36931	3240	298
0	36931	3240	5254
0	38226	3360	1453
0	38226	3360	307
0	38226	3360	5443
0	39555	3480	1502
0	39555	3480	317
0	39555	3480	5634
0	40961	3600	1559
0	40961	3600	326
0	40961	3600	5834
0	42349	3720	1612
0	42349	3720	340
0	42349	3720	6028
0	43706	3840	1667
0	43706	3840	351
0	43706	3840	6217
0	45128	3960	1720
0	45128	3960	363
0	45128	3960	6420
0	46470	4080	1770
0	46470	4080	373
0	46470	4080	6613
0	47848	4200	1828
0	47848	4200	389
0	47848	4200	6798
0	49187	4320	1877
0	49187	4320	401
0	49187	4320	6989
0	50455	4440	1920
0	50455	4440	411
0	50455	4440	7174
0	51844	4560	1970
0	51844	4560	424
0	51844	4560	7373
0	53223	4680	2023
0	53223	4680	434
0	53223	4680	7570
0	54539	4800	2069
0	54539	4800	443
0	54539	4800	7763
0	55967	4920	2130
0	55967	4920	451
0	55967	4920	7964
0	57426	5040	2180
0	57426	5040	467
0	57426	5040	8173
0	58831	5160	2234
0	58831	5160	478
0	58831	5160	8373
0	60214	5280	2284
0	60214	5280	487
0	60214	5280	8575
0	61556	5400	2329
0	61556	5400	497
0	61556	5400	8773
0	62942	5520	2381
0	62942	5520	511
0	62942	5520	8968
0	64265	5640	2424
0	64265	5640	522
0	64265	5640	9163
0	65572	5760	2474
0	65572	5760	532
0	65572	5760	9349
0	66938	5880	2523
0	66938	5880	541
0	66938	5880	9549
0	68308	6000	2576
0	68308	6000	550
0	68308	6000	9745
0	69711	6120	2626
0	69711	6120	560
0	69711	6120	9950
0	71134	6240	2680
0	71134	6240	578
0	71134	6240	10146
0	72546	6360	2734
0	72546	6360	592
0	72546	6360	10344
0	73890	6480	2785
0	73890	6480	604
0	73890	6480	10534
0	75220	6600	2842
0	75220	6600	614
0	75220	6600	10717
0	76556	6720	2893
0	76556	6720	628
0	76556	6720	10903
0	77929	6840	2944
0	77929	6840	639
0	77929	6840	11100
0	79290	6960	2997
0	79290	6960	646
0	79290	6960	11297
0	80628	7080	3048
0	80628	7080	657
0	80628	7080	11487
0	81960	7200	3099
0	81960	7200	667
0	81960	7200	11677
0	83332	7320	3148
0	83332	7320	676
0	83332	7320	11878
0	84706	7440	3197
0	84706	7440	684
0	84706	7440	12081
0	86074	7560	3253
0	86074	7560	694
0	86074	7560	12273
0	87421	7680	3307
0	87421	7680	708
0	87421	7680	12458
0	88739	7800	3357
0	88739	7800	719
0	88739	7800	12645
0	90038	7920	3409
0	90038	7920	729
0	90038	7920	12826
0	91414	8040	3462
0	91414	8040	741
0	91414	8040	13021
0	92778	8160	3515
0	92778	8160	756
0	92778	8160	13209
0	94145	8280	3569
0	94145	8280	765
0	94145	8280	13404
0	95488	8400	3617
0	95488	8400	774
0	95488	8400	13600
0	96941	8520	3675
0	96941	8520	785
0	96941	8520	13806
0	98312	8640	3727
0	98312	8640	794
0	98312	8640	14004
0	99737	8760	3780
0	99737	8760	804
0	99737	8760	14210
0	101111	8880	3827
0	101111	8880	814
0	101111	8880	14412
0	102510	9000	3879
0	102510	9000	825
0	102510	9000	14613
0	103921	9120	3932
0	103921	9120	839
0	103921	9120	14812
0	105253	9240	3982
0	105253	9240	852
0	105253	9240	14999
0	106574	9360	4026
0	106574	9360	865
0	106574	9360	15190
0	107859	9480	4076
0	107859	9480	877
0	107859	9480	15369
1	2	0	0
1	2	0	0
1	2	0	0
1	1398	120	53
1	1398	120	9
1	1398	120	202
1	2699	240	96
1	2699	240	21
1	2699	240	391
1	4070	360	149
1	4070	360	33
1	4070	360	584
1	5448	480	203
1	5448	480	42
1	5448	480	782
1	6864	600	259
1	6864	600	54
1	6864	600	981
1	8274	720	314
1	8274	720	65
1	8274	720	1181
1	9626	840	364
1	9626	840	75
1	9626	840	1376
1	11014	960	411
1	11014	960	85
1	11014	960	1581
1	12358	1080	459
1	12358	1080	96
1	12358	1080	1775
1	13678	1200	511
1	13678	1200	109
1	13678	1200	1958
1	15028	1320	559
1	15028	1320	122
1	15028	1320	2151
1	16424	1440	615
1	16424	1440	130
1	16424	1440	2351
1	17775	1560	667
1	17775	1560	144
1	17775	1560	2539
1	19137	1680	719
1	19137	1680	156
1	19137	1680	2731
1	20465	1800	775
1	20465	1800	167
1	20465	1800	2914
1	21845	1920	822
1	21845	1920	178
1	21845	1920	3116
1	23211	2040	870
1	23211	2040	189
1	23211	2040	3314
1	24569	2160	920
1	24569	2160	200
1	24569	2160	3509
1	25896	2280	972
1	25896	2280	209
1	25896	2280	3698
1	27307	2400	1022
1	27307	2400	223
1	27307	2400	3900
1	28763	2520	1080
1	28763	2520	235
1	28763	2520	4105
1	30117	2640	1128
1	30117	2640	250
1	30117	2640	4296
1	31461	2760	1179
1	31461	2760	263
1	31461	2760	4485
1	32776	2880	1225
1	32776	2880	272
1	32776	2880	4678
1	34166	3000	1278
1	34166	3000	283
1	34166	3000	4876
1	35585	3120	1330
1	35585	3120	291
1	35585	3120	5085
1	36932	3240	1384
1	36932	3240	303
1	36932	3240	5272
1	38227	3360	1430
1	38227	3360	312
1	38227	3360	5461
1	39556	3480	1477
1	39556	3480	323
1	39556	3480	5653
1	40962	3600	1527
1	40962	3600	332
1	40962	3600	5860
1	42350	3720	1580
1	42350	3720	348
1	42350	3720	6052
1	43707	3840	1635
1	43707	3840	362
1	43707	3840	6238
1	45129	3960	1683
1	45129	3960	376
1	45129	3960	6444
1	46471	4080	1738
1	46471	4080	387
1	46471	4080	6631
1	47849	4200	1789
1	47849	4200	402
1	47849	4200	6824
1	49188	4320	1838
1	49188	4320	414
1	49188	4320	7015
1	50456	4440	1887
1	50456	4440	424
1	50456	4440	7194
1	51845	4560	1942
1	51845	4560	436
1	51845	4560	7389
1	53224	4680	1989
1	53224	4680	447
1	53224	4680	7591
1	54540	4800	2038
1	54540	4800	456
1	54540	4800	7781
1	55968	4920	2092
1	55968	4920	465
1	55968	4920	7988
1	57427	5040	2150
1	57427	5040	479
1	57427	5040	8191
1	58832	5160	2204
1	58832	5160	489
1	58832	5160	8392
1	60215	5280	2255
1	60215	5280	501
1	60215	5280	8590
1	61557	5400	2305
1	61557	5400	511
1	61557	5400	8783
1	62943	5520	2356
1	62943	5520	523
1	62943	5520	8981
1	64266	5640	2401
1	64266	5640	533
1	64266	5640	9175
1	65573	5760	2446
1	65573	5760	543
1	65573	5760	9366
1	66939	5880	2496
1	66939	5880	552
1	66939	5880	9565
1	68309	6000	2552
1	68309	6000	564
1	68309	6000	9755
1	69712	6120	2605
1	69712	6120	574
1	69712	6120	9957
1	71135	6240	2655
1	71135	6240	591
1	71135	6240	10158
1	72547	6360	2708
1	72547	6360	603
1	72547	6360	10359
1	73891	6480	2757
1	73891	6480	615
1	73891	6480	10551
1	75221	6600	2806
1	75221	6600	627
1	75221	6600	10740
1	76557	6720	2853
1	76557	6720	639
1	76557	6720	10932
1	77930	6840	2902
1	77930	6840	651
1	77930	6840	11130
1	79291	6960	2951
1	79291	6960	658
1	79291	6960	11331
1	80629	7080	3004
1	80629	7080	670
1	80629	7080	11518
1	81961	7200	3054
1	81961	7200	678
1	81961	7200	11711
1	83333	7320	3105
1	83333	7320	687
1	83333	7320	11910
1	84707	7440	3158
1	84707	7440	695
1	84707	7440	12109
1	86075	7560	3208
1	86075	7560	706
1	86075	7560	12306
1	87422	7680	3259
1	87422	7680	717
1	87422	7680	12497
1	88740	7800	3310
1	88740	7800	726
1	88740	7800	12685
1	90039	7920	3361
1	90039	7920	739
1	90039	7920	12864
1	91415	8040	3414
1	91415	8040	751
1	91415	8040	13059
1	92779	8160	3469
1	92779	8160	766
1	92779	8160	13245
1	94146	8280	3518
1	94146	8280	776
1	94146	8280	13444
1	95489	8400	3569
1	95489	8400	786
1	95489	8400	13636
1	96942	8520	3627
1	96942	8520	795
1	96942	8520	13844
1	98313	8640	3683
1	98313	8640	804
1	98313	8640	14038
1	99738	8760	3740
1	99738	8760	817
1	99738	8760	14237
1	101112	8880	3803
1	101112	8880	827
1	101112	8880	14423
1	102511	9000	3853
1	102511	9000	838
1	102511	9000	14626
1	103922	9120	3901
1	103922	9120	853
1	103922	9120	14829
1	105254	9240	3945
1	105254	9240	863
1	105254	9240	15025
1	106575	9360	3994
1	106575	9360	875
1	106575	9360	15212
1	107860	9480	4043
1	107860	9480	889
1	107860	9480	15390
2	3	0	0
2	3	0	0
2	3	0	0
2	1399	120	49
2	1399	120	9
2	1399	120	206
2	2700	240	99
2	2700	240	22
2	2700	240	387
2	4071	360	152
2	4071	360	33
2	4071	360	581
2	5449	480	204
2	5449	480	42
2	5449	480	781
2	6865	600	255
2	6865	600	56
2	6865	600	983
2	8275	720	309
2	8275	720	68
2	8275	720	1183
2	9627	840	360
2	9627	840	77
2	9627	840	1378
2	11015	960	414
2	11015	960	87
2	11015	960	1576
2	12359	1080	462
2	12359	1080	98
2	12359	1080	1770
2	13679	1200	513
2	13679	1200	109
2	13679	1200	1956
2	15029	1320	569
2	15029	1320	122
2	15029	1320	2141
2	16425	1440	619
2	16425	1440	131
2	16425	1440	2346
2	17776	1560	669
2	17776	1560	141
2	17776	1560	2540
2	19138	1680	721
2	19138	1680	154
2	19138	1680	2731
2	20466	1800	773
2	20466	1800	165
2	20466	1800	2918
2	21846	1920	826
2	21846	1920	175
2	21846	1920	3115
2	23212	2040	875
2	23212	2040	187
2	23212	2040	3311
2	24570	2160	930
2	24570	2160	198
2	24570	2160	3501
2	25897	2280	979
2	25897	2280	209
2	25897	2280	3691
2	27308	2400	1034
2	27308	2400	223
2	27308	2400	3888
2	28764	2520	1088
2	28764	2520	235
2	28764	2520	4097
2	30118	2640	1140
2	30118	2640	249
2	30118	2640	4285
2	31462	2760	1189
2	31462	2760	259
2	31462	2760	4479
2	32777	2880	1232
2	32777	2880	268
2	32777	2880	4675
2	34167	3000	1287
2	34167	3000	280
2	34167	3000	4870
2	35586	3120	1338
2	35586	3120	288
2	35586	3120	5080
2	36933	3240	1390
2	36933	3240	302
2	36933	3240	5267
2	38228	3360	1440
2	38228	3360	310
2	38228	3360	5453
2	39557	3480	1495
2	39557	3480	320
2	39557	3480	5638
2	40963	3600	1556
2	40963	3600	329
2	40963	3600	5834
2	42351	3720	1602
2	42351	3720	346
2	42351	3720	6032
2	43708	3840	1650
2	43708	3840	360
2	43708	3840	6225
2	45130	3960	1705
2	45130	3960	373
2	45130	3960	6425
2	46472	4080	1753
2	46472	4080	383
2	46472	4080	6620
2	47850	4200	1804
2	47850	4200	394
2	47850	4200	6817
2	49189	4320	1854
2	49189	4320	405
2	49189	4320	7008
2	50457	4440	1901
2	50457	4440	414
2	50457	4440	7190
2	51846	4560	1956
2	51846	4560	426
2	51846	4560	7385
2	53225	4680	2008
2	53225	4680	438
2	53225	4680	7581
2	54541	4800	2060
2	54541	4800	446
2	54541	4800	7769
2	55969	4920	2111
2	55969	4920	455
2	55969	4920	7979
2	57428	5040	2166
2	57428	5040	472
2	57428	5040	8182
2	58833	5160	2226
2	58833	5160	483
2	58833	5160	8376
2	60216	5280	2277
2	60216	5280	495
2	60216	5280	8574
2	61558	5400	2327
2	61558	5400	504
2	61558	5400	8768
2	62944	5520	2374
2	62944	5520	518
2	62944	5520	8968
2	64267	5640	2421
2	64267	5640	529
2	64267	5640	9159
2	65574	5760	2472
2	65574	5760	539
2	65574	5760	9344
2	66940	5880	2524
2	66940	5880	548
2	66940	5880	9541
2	68310	6000	2576
2	68310	6000	560
2	68310	6000	9735
2	69713	6120	2629
2	69713	6120	569
2	69713	6120	9938
2	71136	6240	2684
2	71136	6240	584
2	71136	6240	10136
2	72548	6360	2735
2	72548	6360	599
2	72548	6360	10336
2	73892	6480	2786
2	73892	6480	608
2	73892	6480	10529
2	75222	6600	2832
2	75222	6600	620
2	75222	6600	10721
2	76558	6720	2881
2	76558	6720	632
2	76558	6720	10911
2	77931	6840	2933
2	77931	6840	642
2	77931	6840	11108
2	79292	6960	2983
2	79292	6960	650
2	79292	6960	11307
2	80630	7080	3029
2	80630	7080	661
2	80630	7080	11502
2	81962	7200	3081
2	81962	7200	671
2	81962	7200	11691
2	83334	7320	3131
2	83334	7320	681
2	83334	7320	11890
2	84708	7440	3181
2	84708	7440	689
2	84708	7440	12092
2	86076	7560	3228
2	86076	7560	700
2	86076	7560	12292
2	87423	7680	3283
2	87423	7680	715
2	87423	7680	12475
2	88741	7800	3330
2	88741	7800	726
2	88741	7800	12665
2	90040	7920	3372
2	90040	7920	738
2	90040	7920	12854
2	91416	8040	3423
2	91416	8040	749
2	91416	8040	13052
2	92780	8160	3471
2	92780	8160	762
2	92780	8160	13247
2	94147	8280	3522
2	94147	8280	773
2	94147	8280	13443
2	95490	8400	3572
2	95490	8400	783
2	95490	8400	13636
2	96943	8520	3628
2	96943	8520	795
2	96943	8520	13843
2	98314	8640	3679
2	98314	8640	804
2	98314	8640	14042
2	99739	8760	3732
2	99739	8760	816
2	99739	8760	14246
2	101113	8880	3783
2	101113	8880	827
2	101113	8880	14443
2	102512	9000	3837
2	102512	9000	836
2	102512	9000	14644
2	103923	9120	3902
2	103923	9120	849
2	103923	9120	14832
2	105255	9240	3953
2	105255	9240	863
2	105255	9240	15017
2	106576	9360	4001
2	106576	9360	873
2	106576	9360	15207
2	107861	9480	4044
2	107861	9480	886
2	107861	9480	15392
3	4	0	0
3	4	0	0
3	4	0	0
3	1400	120	52
3	1400	120	8
3	1400	120	204
3	2701	240	96
3	2701	240	20
3	2701	240	392
3	4072	360	147
3	4072	360	32
3	4072	360	587
3	5450	480	202
3	5450	480	41
3	5450	480	784
3	6866	600	257
3	6866	600	54
3	6866	600	983
3	8276	720	309
3	8276	720	64
3	8276	720	1187
3	9628	840	366
3	9628	840	73
3	9628	840	1376
3	11016	960	421
3	11016	960	83
3	11016	960	1573
3	12360	1080	472
3	12360	1080	96
3	12360	1080	1762
3	13680	1200	517
3	13680	1200	109
3	13680	1200	1952
3	15030	1320	570
3	15030	1320	121
3	15030	1320	2141
3	16426	1440	623
3	16426	1440	131
3	16426	1440	2342
3	17777	1560	676
3	17777	1560	145
3	17777	1560	2529
3	19139	1680	726
3	19139	1680	157
3	19139	1680	2723
3	20467	1800	775
3	20467	1800	169
3	20467	1800	2912
3	21847	1920	825
3	21847	1920	180
3	21847	1920	3111
3	23213	2040	877
3	23213	2040	195
3	23213	2040	3301
3	24571	2160	928
3	24571	2160	206
3	24571	2160	3495
3	25898	2280	977
3	25898	2280	217
3	25898	2280	3685
3	27309	2400	1031
3	27309	2400	228
3	27309	2400	3886
3	28765	2520	1086
3	28765	2520	240
3	28765	2520	4094
3	30119	2640	1137
3	30119	2640	253
3	30119	2640	4284
3	31463	2760	1188
3	31463	2760	265
3	31463	2760	4474
3	32778	2880	1238
3	32778	2880	274
3	32778	2880	4663
3	34168	3000	1291
3	34168	3000	286
3	34168	3000	4860
3	35587	3120	1344
3	35587	3120	294
3	35587	3120	5068
3	36934	3240	1393
3	36934	3240	305
3	36934	3240	5261
3	38229	3360	1445
3	38229	3360	314
3	38229	3360	5444
3	39558	3480	1495
3	39558	3480	325
3	39558	3480	5633
3	40964	3600	1544
3	40964	3600	333
3	40964	3600	5842
3	42352	3720	1598
3	42352	3720	347
3	42352	3720	6035
3	43709	3840	1650
3	43709	3840	359
3	43709	3840	6226
3	45131	3960	1704
3	45131	3960	374
3	45131	3960	6425
3	46473	4080	1754
3	46473	4080	384
3	46473	4080	6618
3	47851	4200	1804
3	47851	4200	398
3	47851	4200	6813
3	49190	4320	1856
3	49190	4320	408
3	49190	4320	7003
3	50458	4440	1906
3	50458	4440	418
3	50458	4440	7181
3	51847	4560	1952
3	51847	4560	430
3	51847	4560	7385
3	53226	4680	2003
3	53226	4680	442
3	53226	4680	7582
3	54542	4800	2052
3	54542	4800	451
3	54542	4800	7772
3	55970	4920	2107
3	55970	4920	460
3	55970	4920	7978
3	57429	5040	2166
3	57429	5040	478
3	57429	5040	8176
3	58834	5160	2213
3	58834	5160	490
3	58834	5160	8382
3	60217	5280	2267
3	60217	5280	501
3	60217	5280	8578
3	61559	5400	2317
3	61559	5400	510
3	61559	5400	8772
3	62945	5520	2373
3	62945	5520	522
3	62945	5520	8965
3	64268	5640	2432
3	64268	5640	532
3	64268	5640	9145
3	65575	5760	2484
3	65575	5760	541
3	65575	5760	9330
3	66941	5880	2540
3	66941	5880	549
3	66941	5880	9524
3	68311	6000	2589
3	68311	6000	561
3	68311	6000	9721
3	69714	6120	2644
3	69714	6120	571
3	69714	6120	9921
3	71137	6240	2698
3	71137	6240	586
3	71137	6240	10120
3	72549	6360	2754
3	72549	6360	600
3	72549	6360	10316
3	73893	6480	2807
3	73893	6480	611
3	73893	6480	10505
3	75223	6600	2853
3	75223	6600	622
3	75223	6600	10698
3	76559	6720	2902
3	76559	6720	635
3	76559	6720	10887
3	77932	6840	2955
3	77932	6840	647
3	77932	6840	11081
3	79293	6960	3006
3	79293	6960	654
3	79293	6960	11280
3	80631	7080	3055
3	80631	7080	665
3	80631	7080	11472
3	81963	7200	3104
3	81963	7200	675
3	81963	7200	11664
3	83335	7320	3158
3	83335	7320	685
3	83335	7320	11859
3	84709	7440	3207
3	84709	7440	693
3	84709	7440	12062
3	86077	7560	3255
3	86077	7560	702
3	86077	7560	12263
3	87424	7680	3305
3	87424	7680	716
3	87424	7680	12452
3	88742	7800	3352
3	88742	7800	727
3	88742	7800	12642
3	90041	7920	3399
3	90041	7920	740
3	90041	7920	12825
3	91417	8040	3453
3	91417	8040	753
3	91417	8040	13018
3	92781	8160	3504
3	92781	8160	768
3	92781	8160	13208
3	94148	8280	3555
3	94148	8280	779
3	94148	8280	13404
3	95491	8400	3604
3	95491	8400	788
3	95491	8400	13599
3	96944	8520	3652
3	96944	8520	800
3	96944	8520	13814
3	98315	8640	3701
3	98315	8640	809
3	98315	8640	14015
3	99740	8760	3755
3	99740	8760	822
3	99740	8760	14217
3	101114	8880	3806
3	101114	8880	833
3	101114	8880	14414
3	102513	9000	3859
3	102513	9000	843
3	102513	9000	14615
3	103924	9120	3911
3	103924	9120	856
3	103924	9120	14816
3	105256	9240	3957
3	105256	9240	870
3	105256	9240	15006
3	106577	9360	4007
3	106577	9360	884
3	106577	9360	15190
3	107862	9480	4056
3	107862	9480	893
3	107862	9480	15373
4	5	0	0
4	5	0	0
4	5	0	0
4	1401	120	55
4	1401	120	9
4	1401	120	200
4	2702	240	107
4	2702	240	19
4	2702	240	382
4	4073	360	161
4	4073	360	29
4	4073	360	576
4	5451	480	206
4	5451	480	37
4	5451	480	784
4	6867	600	260
4	6867	600	51
4	6867	600	983
4	8277	720	316
4	8277	720	63
4	8277	720	1181
4	9629	840	362
4	9629	840	73
4	9629	840	1380
4	11017	960	415
4	11017	960	84
4	11017	960	1578
4	12361	1080	464
4	12361	1080	97
4	12361	1080	1769
4	13681	1200	512
4	13681	1200	107
4	13681	1200	1959
4	15031	1320	559
4	15031	1320	119
4	15031	1320	2154
4	16427	1440	612
4	16427	1440	128
4	16427	1440	2356
4	17778	1560	661
4	17778	1560	142
4	17778	1560	2547
4	19140	1680	710
4	19140	1680	155
4	19140	1680	2741
4	20468	1800	762
4	20468	1800	165
4	20468	1800	2929
4	21848	1920	816
4	21848	1920	175
4	21848	1920	3125
4	23214	2040	873
4	23214	2040	191
4	23214	2040	3309
4	24572	2160	919
4	24572	2160	202
4	24572	2160	3508
4	25899	2280	974
4	25899	2280	212
4	25899	2280	3693
4	27310	2400	1023
4	27310	2400	225
4	27310	2400	3897
4	28766	2520	1075
4	28766	2520	239
4	28766	2520	4106
4	30120	2640	1124
4	30120	2640	254
4	30120	2640	4296
4	31464	2760	1178
4	31464	2760	267
4	31464	2760	4482
4	32779	2880	1231
4	32779	2880	276
4	32779	2880	4668
4	34169	3000	1278
4	34169	3000	287
4	34169	3000	4872
4	35588	3120	1335
4	35588	3120	295
4	35588	3120	5076
4	36935	3240	1385
4	36935	3240	308
4	36935	3240	5266
4	38230	3360	1435
4	38230	3360	317
4	38230	3360	5451
4	39559	3480	1484
4	39559	3480	327
4	39559	3480	5642
4	40965	3600	1533
4	40965	3600	336
4	40965	3600	5850
4	42353	3720	1588
4	42353	3720	351
4	42353	3720	6041
4	43710	3840	1633
4	43710	3840	364
4	43710	3840	6238
4	45132	3960	1691
4	45132	3960	378
4	45132	3960	6434
4	46474	4080	1741
4	46474	4080	389
4	46474	4080	6626
4	47852	4200	1790
4	47852	4200	405
4	47852	4200	6820
4	49191	4320	1842
4	49191	4320	416
4	49191	4320	7009
4	50459	4440	1891
4	50459	4440	425
4	50459	4440	7189
4	51848	4560	1947
4	51848	4560	436
4	51848	4560	7384
4	53227	4680	2004
4	53227	4680	447
4	53227	4680	7576
4	54543	4800	2056
4	54543	4800	456
4	54543	4800	7763
4	55971	4920	2105
4	55971	4920	465
4	55971	4920	7975
4	57430	5040	2158
4	57430	5040	484
4	57430	5040	8178
4	58835	5160	2208
4	58835	5160	496
4	58835	5160	8381
4	60218	5280	2263
4	60218	5280	508
4	60218	5280	8575
4	61560	5400	2321
4	61560	5400	518
4	61560	5400	8760
4	62946	5520	2376
4	62946	5520	530
4	62946	5520	8954
4	64269	5640	2431
4	64269	5640	540
4	64269	5640	9138
4	65576	5760	2479
4	65576	5760	549
4	65576	5760	9327
4	66942	5880	2530
4	66942	5880	558
4	66942	5880	9525
4	68312	6000	2578
4	68312	6000	569
4	68312	6000	9724
4	69715	6120	2632
4	69715	6120	578
4	69715	6120	9926
4	71138	6240	2687
4	71138	6240	593
4	71138	6240	10124
4	72550	6360	2739
4	72550	6360	606
4	72550	6360	10325
4	73894	6480	2788
4	73894	6480	618
4	73894	6480	10517
4	75224	6600	2840
4	75224	6600	629
4	75224	6600	10704
4	76560	6720	2895
4	76560	6720	642
4	76560	6720	10887
4	77933	6840	2949
4	77933	6840	653
4	77933	6840	11081
4	79294	6960	3003
4	79294	6960	660
4	79294	6960	11277
4	80632	7080	3056
4	80632	7080	671
4	80632	7080	11465
4	81964	7200	3105
4	81964	7200	681
4	81964	7200	11657
4	83336	7320	3160
4	83336	7320	691
4	83336	7320	11851
4	84710	7440	3219
4	84710	7440	699
4	84710	7440	12044
4	86078	7560	3276
4	86078	7560	710
4	86078	7560	12234
4	87425	7680	3319
4	87425	7680	724
4	87425	7680	12430
4	88743	7800	3372
4	88743	7800	734
4	88743	7800	12615
4	90042	7920	3423
4	90042	7920	746
4	90042	7920	12795
4	91418	8040	3472
4	91418	8040	758
4	91418	8040	12994
4	92782	8160	3521
4	92782	8160	772
4	92782	8160	13187
4	94149	8280	3574
4	94149	8280	783
4	94149	8280	13381
4	95492	8400	3629
4	95492	8400	793
4	95492	8400	13569
4	96945	8520	3684
4	96945	8520	805
4	96945	8520	13777
4	98316	8640	3735
4	98316	8640	813
4	98316	8640	13977
4	99741	8760	3787
4	99741	8760	825
4	99741	8760	14182
4	101115	8880	3834
4	101115	8880	835
4	101115	8880	14384
4	102514	9000	3889
4	102514	9000	846
4	102514	9000	14582
4	103925	9120	3937
4	103925	9120	859
4	103925	9120	14787
4	105257	9240	3996
4	105257	9240	872
4	105257	9240	14965
4	106578	9360	4053
4	106578	9360	883
4	106578	9360	15145
4	107863	9480	4103
4	107863	9480	895
4	107863	9480	15324

